LAMMPS data file via xyz_to_lammps_data.py

60 atoms
1 atom types
-23.4231106794 23.4231106794 xlo xhi
-23.4803494717 23.4803494717 ylo yhi
-23.3272231505 23.3272231505 zlo zhi

Masses

1 12.011

Atoms # atomic

1 1 -1.2361033993 -8e-10 3.3272231505
2 1 -0.3819800232 -1.1755851849 3.3272169604
3 1 0.9999810194 -0.726521752 3.3271413051
4 1 0.9999810193 0.7265217508 3.3271413054
5 1 -0.3819800234 1.1755851834 3.3272169609
6 1 2.3423101083 -2.5998719509 0.5935724923
7 1 3.1964598435 -1.4243061998 0.593596893
8 1 2.9606554937 -0.6978169039 1.8297792647
9 1 1.9604412527 -1.4243223569 2.5935744981
10 1 1.5785154576 -2.6000200699 1.8297307832
11 1 3.1964598432 1.4243062001 0.5935968936
12 1 2.3423101079 2.5998719511 0.5935724934
13 1 1.5785154571 2.6000200694 1.8297307843
14 1 1.9604412525 1.4243223562 2.5935744987
15 1 2.9606554935 0.6978169036 1.829779265
16 1 -0.3668332874 3.4803494714 0.5936079705
17 1 -1.7487882933 3.0312086003 0.5935641634
18 1 -1.9848963199 2.304721294 1.8296899061
19 1 -0.748819519 2.3047284227 2.5936414316
20 1 0.2512422822 3.0313076907 1.8297301655
21 1 -3.4231106794 0.7265381266 0.5935350045
22 1 -3.4231106792 -0.7265381275 0.5935350041
23 1 -2.8051260082 -1.1756124102 1.8296186108
24 1 -2.4231816961 -8e-10 2.5935378183
25 1 -2.8051260084 1.1756124089 1.8296186113
26 1 -1.7487882927 -3.0312086009 0.5935641622
27 1 -0.3668332867 -3.4803494717 0.593607969
28 1 0.2512422828 -3.0313076915 1.8297301642
29 1 -0.7488195186 -2.3047284239 2.5936414307
30 1 -1.9848963195 -2.3047212951 1.8296899051
31 1 -0.2512422822 -3.0313076907 -1.8297301655
32 1 0.748819519 -2.3047284227 -2.5936414316
33 1 1.9848963199 -2.304721294 -1.8296899061
34 1 1.7487882933 -3.0312086003 -0.5935641634
35 1 0.3668332874 -3.4803494714 -0.5936079705
36 1 2.8051260084 -1.1756124089 -1.8296186113
37 1 2.4231816961 8e-10 -2.5935378183
38 1 2.8051260082 1.1756124102 -1.8296186108
39 1 3.4231106792 0.7265381275 -0.5935350041
40 1 3.4231106794 -0.7265381266 -0.5935350045
41 1 1.9848963195 2.3047212951 -1.8296899051
42 1 0.7488195186 2.3047284239 -2.5936414307
43 1 -0.2512422828 3.0313076915 -1.8297301642
44 1 0.3668332867 3.4803494717 -0.593607969
45 1 1.7487882927 3.0312086009 -0.5935641622
46 1 -1.5785154576 2.6000200699 -1.8297307832
47 1 -1.9604412527 1.4243223569 -2.5935744981
48 1 -2.9606554937 0.6978169039 -1.8297792647
49 1 -3.1964598435 1.4243061998 -0.593596893
50 1 -2.3423101083 2.5998719509 -0.5935724923
51 1 -2.9606554935 -0.6978169036 -1.829779265
52 1 -1.9604412525 -1.4243223562 -2.5935744987
53 1 -1.5785154571 -2.6000200694 -1.8297307843
54 1 -2.3423101079 -2.5998719511 -0.5935724934
55 1 -3.1964598432 -1.4243062001 -0.5935968936
56 1 -0.9999810193 -0.7265217508 -3.3271413054
57 1 -0.9999810194 0.726521752 -3.3271413051
58 1 0.3819800232 1.1755851849 -3.3272169604
59 1 1.2361033993 8e-10 -3.3272231505
60 1 0.3819800234 -1.1755851834 -3.3272169609
