60
 Atoms. Timestep: 1
1 -1.23288 -7.30905e-10 3.32885
1 -0.380992 -1.17255 3.32883
1 0.997391 -0.724656 3.32877
1 0.997391 0.724656 3.32877
1 -0.380992 1.17255 3.32883
1 2.34367 -2.59853 0.596617
1 3.19559 -1.42601 0.596644
1 2.96036 -0.701377 1.82961
1 1.96279 -1.42603 2.59144
1 1.58182 -2.59865 1.82956
1 3.19559 1.42601 0.596644
1 2.34367 2.59853 0.596617
1 1.58182 2.59865 1.82956
1 1.96279 1.42603 2.59144
1 2.96036 0.701377 1.82961
1 -0.368702 3.48003 0.596634
1 -1.74709 3.03207 0.59661
1 -1.98259 2.30745 1.82952
1 -0.749699 2.30746 2.5915
1 0.247748 3.03216 1.82956
1 -3.42341 0.724662 0.596581
1 -3.42341 -0.724662 0.596581
1 -2.80702 -1.17257 1.82946
1 -2.42607 -7.90132e-10 2.59139
1 -2.80702 1.17257 1.82946
1 -1.74709 -3.03207 0.59661
1 -0.368702 -3.48003 0.596634
1 0.247748 -3.03216 1.82956
1 -0.749699 -2.30746 2.5915
1 -1.98259 -2.30745 1.82952
1 -0.247748 -3.03216 -1.82956
1 0.749699 -2.30746 -2.5915
1 1.98259 -2.30745 -1.82952
1 1.74709 -3.03207 -0.59661
1 0.368702 -3.48003 -0.596634
1 2.80702 -1.17257 -1.82946
1 2.42607 7.90317e-10 -2.59139
1 2.80702 1.17257 -1.82946
1 3.42341 0.724662 -0.596581
1 3.42341 -0.724662 -0.596581
1 1.98259 2.30745 -1.82952
1 0.749699 2.30746 -2.5915
1 -0.247748 3.03216 -1.82956
1 0.368702 3.48003 -0.596634
1 1.74709 3.03207 -0.59661
1 -1.58182 2.59865 -1.82956
1 -1.96279 1.42603 -2.59144
1 -2.96036 0.701377 -1.82961
1 -3.19559 1.42601 -0.596644
1 -2.34367 2.59853 -0.596617
1 -2.96036 -0.701377 -1.82961
1 -1.96279 -1.42603 -2.59144
1 -1.58182 -2.59865 -1.82956
1 -2.34367 -2.59853 -0.596617
1 -3.19559 -1.42601 -0.596644
1 -0.997391 -0.724656 -3.32877
1 -0.997391 0.724656 -3.32877
1 0.380992 1.17255 -3.32883
1 1.23288 7.3069e-10 -3.32885
1 0.380992 -1.17255 -3.32883
